5
energy: 0.0
C   	0.000000000000	0.000000000000	0.000000000000
H   	1.000000000000	0.000000000000	0.000000000000
H   	0.000000000000	0.000000000000	1.000000000000
H   	-0.499998009787	-0.866026552831	0.000000000000
H   	0.000000000000	0.000000000000	-1.000000000000
