5
energy: 0.0
C   	0.000000000000	0.000000000000	0.000000000000
H   	-0.348909219892	-0.460098971289	0.816438174569
H   	0.998893820876	-0.038610147688	0.026840102666
H   	0.286880174868	-0.957840583852	-0.015530009466
H   	-0.551010217374	0.473220186685	-0.687350271160
