5
energy: 0.0
C   	0.000000000000	0.000000000000	0.000000000000
H   	0.333321180209	-0.942813338272	0.000000000000
H   	0.333339039052	0.471398641054	0.816497646204
H   	0.333339039052	0.471398641054	-0.816497646204
H   	-0.999999999950	0.000010000000	0.000000000000
