2
energy: 0.0
C   	0.000000000000	0.000000000000	0.000000000000
H   	-1.000000000000	0.000000000000	0.000000000000
