3
energy: 0.0
C   	0.000000000000	0.000000000000	0.000000000000
H   	0.498282666193	0.867014639191	0.000000000000
H   	0.499571524245	-0.866272643088	0.000000000000
