4
energy: 0.0
C   	0.000000000000	0.000000000000	0.000000000000
H   	0.499730533388	-0.866180924519	-0.000000000000
H   	-1.000000000000	0.000000000000	-0.000000000000
H   	0.499730533388	0.866180924519	-0.000000000000
